bulk.lammps-data (written by ASE) 

433 	 atoms 
1  atom types
0.0      21.120000000000001  xlo xhi
0.0      21.120000000000001  ylo yhi
0.0      21.120000000000001  zlo zhi


Atoms 

     1   1                       0                       0                       0
     2   1                    1.76                    1.76                    1.76
     3   1                    3.52                       0                       0
     4   1      5.2800000000000002                    1.76                    1.76
     5   1                    7.04                       0                       0
     6   1      8.8000000000000007                    1.76                    1.76
     7   1                   10.56                       0                       0
     8   1                   12.32                    1.76                    1.76
     9   1                   14.08                       0                       0
    10   1                   15.84                    1.76                    1.76
    11   1      17.600000000000001                       0                       0
    12   1      19.360000000000003                    1.76                    1.76
    13   1                       0                    3.52                       0
    14   1                    1.76      5.2800000000000002                    1.76
    15   1                    3.52                    3.52                       0
    16   1      5.2800000000000002      5.2800000000000002                    1.76
    17   1                    7.04                    3.52                       0
    18   1      8.8000000000000007      5.2800000000000002                    1.76
    19   1                   10.56                    3.52                       0
    20   1                   12.32      5.2800000000000002                    1.76
    21   1                   14.08                    3.52                       0
    22   1                   15.84      5.2800000000000002                    1.76
    23   1      17.600000000000001                    3.52                       0
    24   1      19.360000000000003      5.2800000000000002                    1.76
    25   1                       0                    7.04                       0
    26   1                    1.76      8.8000000000000007                    1.76
    27   1                    3.52                    7.04                       0
    28   1      5.2800000000000002      8.8000000000000007                    1.76
    29   1                    7.04                    7.04                       0
    30   1      8.8000000000000007      8.8000000000000007                    1.76
    31   1                   10.56                    7.04                       0
    32   1                   12.32      8.8000000000000007                    1.76
    33   1                   14.08                    7.04                       0
    34   1                   15.84      8.8000000000000007                    1.76
    35   1      17.600000000000001                    7.04                       0
    36   1      19.360000000000003      8.8000000000000007                    1.76
    37   1                       0                   10.56                       0
    38   1                    1.76                   12.32                    1.76
    39   1                    3.52                   10.56                       0
    40   1      5.2800000000000002                   12.32                    1.76
    41   1                    7.04                   10.56                       0
    42   1      8.8000000000000007                   12.32                    1.76
    43   1                   10.56                   10.56                       0
    44   1                   12.32                   12.32                    1.76
    45   1                   14.08                   10.56                       0
    46   1                   15.84                   12.32                    1.76
    47   1      17.600000000000001                   10.56                       0
    48   1      19.360000000000003                   12.32                    1.76
    49   1                       0                   14.08                       0
    50   1                    1.76                   15.84                    1.76
    51   1                    3.52                   14.08                       0
    52   1      5.2800000000000002                   15.84                    1.76
    53   1                    7.04                   14.08                       0
    54   1      8.8000000000000007                   15.84                    1.76
    55   1                   10.56                   14.08                       0
    56   1                   12.32                   15.84                    1.76
    57   1                   14.08                   14.08                       0
    58   1                   15.84                   15.84                    1.76
    59   1      17.600000000000001                   14.08                       0
    60   1      19.360000000000003                   15.84                    1.76
    61   1                       0      17.600000000000001                       0
    62   1                    1.76      19.360000000000003                    1.76
    63   1                    3.52      17.600000000000001                       0
    64   1      5.2800000000000002      19.360000000000003                    1.76
    65   1                    7.04      17.600000000000001                       0
    66   1      8.8000000000000007      19.360000000000003                    1.76
    67   1                   10.56      17.600000000000001                       0
    68   1                   12.32      19.360000000000003                    1.76
    69   1                   14.08      17.600000000000001                       0
    70   1                   15.84      19.360000000000003                    1.76
    71   1      17.600000000000001      17.600000000000001                       0
    72   1      19.360000000000003      19.360000000000003                    1.76
    73   1                       0                       0                    3.52
    74   1                    1.76                    1.76      5.2800000000000002
    75   1                    3.52                       0                    3.52
    76   1      5.2800000000000002                    1.76      5.2800000000000002
    77   1                    7.04                       0                    3.52
    78   1      8.8000000000000007                    1.76      5.2800000000000002
    79   1                   10.56                       0                    3.52
    80   1                   12.32                    1.76      5.2800000000000002
    81   1                   14.08                       0                    3.52
    82   1                   15.84                    1.76      5.2800000000000002
    83   1      17.600000000000001                       0                    3.52
    84   1      19.360000000000003                    1.76      5.2800000000000002
    85   1                       0                    3.52                    3.52
    86   1                    1.76      5.2800000000000002      5.2800000000000002
    87   1                    3.52                    3.52                    3.52
    88   1      5.2800000000000002      5.2800000000000002      5.2800000000000002
    89   1                    7.04                    3.52                    3.52
    90   1      8.8000000000000007      5.2800000000000002      5.2800000000000002
    91   1                   10.56                    3.52                    3.52
    92   1                   12.32      5.2800000000000002      5.2800000000000002
    93   1                   14.08                    3.52                    3.52
    94   1                   15.84      5.2800000000000002      5.2800000000000002
    95   1      17.600000000000001                    3.52                    3.52
    96   1      19.360000000000003      5.2800000000000002      5.2800000000000002
    97   1                       0                    7.04                    3.52
    98   1                    1.76      8.8000000000000007      5.2800000000000002
    99   1                    3.52                    7.04                    3.52
   100   1      5.2800000000000002      8.8000000000000007      5.2800000000000002
   101   1                    7.04                    7.04                    3.52
   102   1      8.8000000000000007      8.8000000000000007      5.2800000000000002
   103   1                   10.56                    7.04                    3.52
   104   1                   12.32      8.8000000000000007      5.2800000000000002
   105   1                   14.08                    7.04                    3.52
   106   1                   15.84      8.8000000000000007      5.2800000000000002
   107   1      17.600000000000001                    7.04                    3.52
   108   1      19.360000000000003      8.8000000000000007      5.2800000000000002
   109   1                       0                   10.56                    3.52
   110   1                    1.76                   12.32      5.2800000000000002
   111   1                    3.52                   10.56                    3.52
   112   1      5.2800000000000002                   12.32      5.2800000000000002
   113   1                    7.04                   10.56                    3.52
   114   1      8.8000000000000007                   12.32      5.2800000000000002
   115   1                   10.56                   10.56                    3.52
   116   1                   12.32                   12.32      5.2800000000000002
   117   1                   14.08                   10.56                    3.52
   118   1                   15.84                   12.32      5.2800000000000002
   119   1      17.600000000000001                   10.56                    3.52
   120   1      19.360000000000003                   12.32      5.2800000000000002
   121   1                       0                   14.08                    3.52
   122   1                    1.76                   15.84      5.2800000000000002
   123   1                    3.52                   14.08                    3.52
   124   1      5.2800000000000002                   15.84      5.2800000000000002
   125   1                    7.04                   14.08                    3.52
   126   1      8.8000000000000007                   15.84      5.2800000000000002
   127   1                   10.56                   14.08                    3.52
   128   1                   12.32                   15.84      5.2800000000000002
   129   1                   14.08                   14.08                    3.52
   130   1                   15.84                   15.84      5.2800000000000002
   131   1      17.600000000000001                   14.08                    3.52
   132   1      19.360000000000003                   15.84      5.2800000000000002
   133   1                       0      17.600000000000001                    3.52
   134   1                    1.76      19.360000000000003      5.2800000000000002
   135   1                    3.52      17.600000000000001                    3.52
   136   1      5.2800000000000002      19.360000000000003      5.2800000000000002
   137   1                    7.04      17.600000000000001                    3.52
   138   1      8.8000000000000007      19.360000000000003      5.2800000000000002
   139   1                   10.56      17.600000000000001                    3.52
   140   1                   12.32      19.360000000000003      5.2800000000000002
   141   1                   14.08      17.600000000000001                    3.52
   142   1                   15.84      19.360000000000003      5.2800000000000002
   143   1      17.600000000000001      17.600000000000001                    3.52
   144   1      19.360000000000003      19.360000000000003      5.2800000000000002
   145   1                       0                       0                    7.04
   146   1                    1.76                    1.76      8.8000000000000007
   147   1                    3.52                       0                    7.04
   148   1      5.2800000000000002                    1.76      8.8000000000000007
   149   1                    7.04                       0                    7.04
   150   1      8.8000000000000007                    1.76      8.8000000000000007
   151   1                   10.56                       0                    7.04
   152   1                   12.32                    1.76      8.8000000000000007
   153   1                   14.08                       0                    7.04
   154   1                   15.84                    1.76      8.8000000000000007
   155   1      17.600000000000001                       0                    7.04
   156   1      19.360000000000003                    1.76      8.8000000000000007
   157   1                       0                    3.52                    7.04
   158   1                    1.76      5.2800000000000002      8.8000000000000007
   159   1                    3.52                    3.52                    7.04
   160   1      5.2800000000000002      5.2800000000000002      8.8000000000000007
   161   1                    7.04                    3.52                    7.04
   162   1      8.8000000000000007      5.2800000000000002      8.8000000000000007
   163   1                   10.56                    3.52                    7.04
   164   1                   12.32      5.2800000000000002      8.8000000000000007
   165   1                   14.08                    3.52                    7.04
   166   1                   15.84      5.2800000000000002      8.8000000000000007
   167   1      17.600000000000001                    3.52                    7.04
   168   1      19.360000000000003      5.2800000000000002      8.8000000000000007
   169   1                       0                    7.04                    7.04
   170   1                    1.76      8.8000000000000007      8.8000000000000007
   171   1                    3.52                    7.04                    7.04
   172   1      5.2800000000000002      8.8000000000000007      8.8000000000000007
   173   1                    7.04                    7.04                    7.04
   174   1      8.8000000000000007      8.8000000000000007      8.8000000000000007
   175   1                   10.56                    7.04                    7.04
   176   1                   12.32      8.8000000000000007      8.8000000000000007
   177   1                   14.08                    7.04                    7.04
   178   1                   15.84      8.8000000000000007      8.8000000000000007
   179   1      17.600000000000001                    7.04                    7.04
   180   1      19.360000000000003      8.8000000000000007      8.8000000000000007
   181   1                       0                   10.56                    7.04
   182   1                    1.76                   12.32      8.8000000000000007
   183   1                    3.52                   10.56                    7.04
   184   1      5.2800000000000002                   12.32      8.8000000000000007
   185   1                    7.04                   10.56                    7.04
   186   1      8.8000000000000007                   12.32      8.8000000000000007
   187   1                   10.56                   10.56                    7.04
   188   1                   12.32                   12.32      8.8000000000000007
   189   1                   14.08                   10.56                    7.04
   190   1                   15.84                   12.32      8.8000000000000007
   191   1      17.600000000000001                   10.56                    7.04
   192   1      19.360000000000003                   12.32      8.8000000000000007
   193   1                       0                   14.08                    7.04
   194   1                    1.76                   15.84      8.8000000000000007
   195   1                    3.52                   14.08                    7.04
   196   1      5.2800000000000002                   15.84      8.8000000000000007
   197   1                    7.04                   14.08                    7.04
   198   1      8.8000000000000007                   15.84      8.8000000000000007
   199   1                   10.56                   14.08                    7.04
   200   1                   12.32                   15.84      8.8000000000000007
   201   1                   14.08                   14.08                    7.04
   202   1                   15.84                   15.84      8.8000000000000007
   203   1      17.600000000000001                   14.08                    7.04
   204   1      19.360000000000003                   15.84      8.8000000000000007
   205   1                       0      17.600000000000001                    7.04
   206   1                    1.76      19.360000000000003      8.8000000000000007
   207   1                    3.52      17.600000000000001                    7.04
   208   1      5.2800000000000002      19.360000000000003      8.8000000000000007
   209   1                    7.04      17.600000000000001                    7.04
   210   1      8.8000000000000007      19.360000000000003      8.8000000000000007
   211   1                   10.56      17.600000000000001                    7.04
   212   1                   12.32      19.360000000000003      8.8000000000000007
   213   1                   14.08      17.600000000000001                    7.04
   214   1                   15.84      19.360000000000003      8.8000000000000007
   215   1      17.600000000000001      17.600000000000001                    7.04
   216   1      19.360000000000003      19.360000000000003      8.8000000000000007
   217   1                       0                       0                   10.56
   218   1                    1.76                    1.76                   12.32
   219   1                    3.52                       0                   10.56
   220   1      5.2800000000000002                    1.76                   12.32
   221   1                    7.04                       0                   10.56
   222   1      8.8000000000000007                    1.76                   12.32
   223   1                   10.56                       0                   10.56
   224   1                   12.32                    1.76                   12.32
   225   1                   14.08                       0                   10.56
   226   1                   15.84                    1.76                   12.32
   227   1      17.600000000000001                       0                   10.56
   228   1      19.360000000000003                    1.76                   12.32
   229   1                       0                    3.52                   10.56
   230   1                    1.76      5.2800000000000002                   12.32
   231   1                    3.52                    3.52                   10.56
   232   1      5.2800000000000002      5.2800000000000002                   12.32
   233   1                    7.04                    3.52                   10.56
   234   1      8.8000000000000007      5.2800000000000002                   12.32
   235   1                   10.56                    3.52                   10.56
   236   1                   12.32      5.2800000000000002                   12.32
   237   1                   14.08                    3.52                   10.56
   238   1                   15.84      5.2800000000000002                   12.32
   239   1      17.600000000000001                    3.52                   10.56
   240   1      19.360000000000003      5.2800000000000002                   12.32
   241   1                       0                    7.04                   10.56
   242   1                    1.76      8.8000000000000007                   12.32
   243   1                    3.52                    7.04                   10.56
   244   1      5.2800000000000002      8.8000000000000007                   12.32
   245   1                    7.04                    7.04                   10.56
   246   1      8.8000000000000007      8.8000000000000007                   12.32
   247   1                   10.56                    7.04                   10.56
   248   1                   12.32      8.8000000000000007                   12.32
   249   1                   14.08                    7.04                   10.56
   250   1                   15.84      8.8000000000000007                   12.32
   251   1      17.600000000000001                    7.04                   10.56
   252   1      19.360000000000003      8.8000000000000007                   12.32
   253   1                       0                   10.56                   10.56
   254   1                    1.76                   12.32                   12.32
   255   1                    3.52                   10.56                   10.56
   256   1      5.2800000000000002                   12.32                   12.32
   257   1                    7.04                   10.56                   10.56
   258   1      8.8000000000000007                   12.32                   12.32
   259   1                   10.56                   10.56                   10.56
   260   1                   12.32                   12.32                   12.32
   261   1                   14.08                   10.56                   10.56
   262   1                   15.84                   12.32                   12.32
   263   1      17.600000000000001                   10.56                   10.56
   264   1      19.360000000000003                   12.32                   12.32
   265   1                       0                   14.08                   10.56
   266   1                    1.76                   15.84                   12.32
   267   1                    3.52                   14.08                   10.56
   268   1      5.2800000000000002                   15.84                   12.32
   269   1                    7.04                   14.08                   10.56
   270   1      8.8000000000000007                   15.84                   12.32
   271   1                   10.56                   14.08                   10.56
   272   1                   12.32                   15.84                   12.32
   273   1                   14.08                   14.08                   10.56
   274   1                   15.84                   15.84                   12.32
   275   1      17.600000000000001                   14.08                   10.56
   276   1      19.360000000000003                   15.84                   12.32
   277   1                       0      17.600000000000001                   10.56
   278   1                    1.76      19.360000000000003                   12.32
   279   1                    3.52      17.600000000000001                   10.56
   280   1      5.2800000000000002      19.360000000000003                   12.32
   281   1                    7.04      17.600000000000001                   10.56
   282   1      8.8000000000000007      19.360000000000003                   12.32
   283   1                   10.56      17.600000000000001                   10.56
   284   1                   12.32      19.360000000000003                   12.32
   285   1                   14.08      17.600000000000001                   10.56
   286   1                   15.84      19.360000000000003                   12.32
   287   1      17.600000000000001      17.600000000000001                   10.56
   288   1      19.360000000000003      19.360000000000003                   12.32
   289   1                       0                       0                   14.08
   290   1                    1.76                    1.76                   15.84
   291   1                    3.52                       0                   14.08
   292   1      5.2800000000000002                    1.76                   15.84
   293   1                    7.04                       0                   14.08
   294   1      8.8000000000000007                    1.76                   15.84
   295   1                   10.56                       0                   14.08
   296   1                   12.32                    1.76                   15.84
   297   1                   14.08                       0                   14.08
   298   1                   15.84                    1.76                   15.84
   299   1      17.600000000000001                       0                   14.08
   300   1      19.360000000000003                    1.76                   15.84
   301   1                       0                    3.52                   14.08
   302   1                    1.76      5.2800000000000002                   15.84
   303   1                    3.52                    3.52                   14.08
   304   1      5.2800000000000002      5.2800000000000002                   15.84
   305   1                    7.04                    3.52                   14.08
   306   1      8.8000000000000007      5.2800000000000002                   15.84
   307   1                   10.56                    3.52                   14.08
   308   1                   12.32      5.2800000000000002                   15.84
   309   1                   14.08                    3.52                   14.08
   310   1                   15.84      5.2800000000000002                   15.84
   311   1      17.600000000000001                    3.52                   14.08
   312   1      19.360000000000003      5.2800000000000002                   15.84
   313   1                       0                    7.04                   14.08
   314   1                    1.76      8.8000000000000007                   15.84
   315   1                    3.52                    7.04                   14.08
   316   1      5.2800000000000002      8.8000000000000007                   15.84
   317   1                    7.04                    7.04                   14.08
   318   1      8.8000000000000007      8.8000000000000007                   15.84
   319   1                   10.56                    7.04                   14.08
   320   1                   12.32      8.8000000000000007                   15.84
   321   1                   14.08                    7.04                   14.08
   322   1                   15.84      8.8000000000000007                   15.84
   323   1      17.600000000000001                    7.04                   14.08
   324   1      19.360000000000003      8.8000000000000007                   15.84
   325   1                       0                   10.56                   14.08
   326   1                    1.76                   12.32                   15.84
   327   1                    3.52                   10.56                   14.08
   328   1      5.2800000000000002                   12.32                   15.84
   329   1                    7.04                   10.56                   14.08
   330   1      8.8000000000000007                   12.32                   15.84
   331   1                   10.56                   10.56                   14.08
   332   1                   12.32                   12.32                   15.84
   333   1                   14.08                   10.56                   14.08
   334   1                   15.84                   12.32                   15.84
   335   1      17.600000000000001                   10.56                   14.08
   336   1      19.360000000000003                   12.32                   15.84
   337   1                       0                   14.08                   14.08
   338   1                    1.76                   15.84                   15.84
   339   1                    3.52                   14.08                   14.08
   340   1      5.2800000000000002                   15.84                   15.84
   341   1                    7.04                   14.08                   14.08
   342   1      8.8000000000000007                   15.84                   15.84
   343   1                   10.56                   14.08                   14.08
   344   1                   12.32                   15.84                   15.84
   345   1                   14.08                   14.08                   14.08
   346   1                   15.84                   15.84                   15.84
   347   1      17.600000000000001                   14.08                   14.08
   348   1      19.360000000000003                   15.84                   15.84
   349   1                       0      17.600000000000001                   14.08
   350   1                    1.76      19.360000000000003                   15.84
   351   1                    3.52      17.600000000000001                   14.08
   352   1      5.2800000000000002      19.360000000000003                   15.84
   353   1                    7.04      17.600000000000001                   14.08
   354   1      8.8000000000000007      19.360000000000003                   15.84
   355   1                   10.56      17.600000000000001                   14.08
   356   1                   12.32      19.360000000000003                   15.84
   357   1                   14.08      17.600000000000001                   14.08
   358   1                   15.84      19.360000000000003                   15.84
   359   1      17.600000000000001      17.600000000000001                   14.08