bulk.lammps-data (written by ASE) 

433 	 atoms 
1  atom types
0.0      21.120000000000001  xlo xhi
0.0      21.120000000000001  ylo yhi
0.0      21.120000000000001  zlo zhi


Atoms 

     1   1                       0                       0                       0
     2   1                    1.76                    1.76                    1.76
     3   1                    3.52                       0                       0
     4   1      5.2800000000000002                    1.76                    1.76
     5   1                    7.04                       0                       0
     6   1      8.8000000000000007                    1.76                    1.76
     7   1                   10.56                       0                       0
     8   1                   12.32                    1.76                    1.76
     9   1                   14.08                       0                       0
    10   1                   15.84                    1.76                    1.76
    11   1      17.600000000000001                       0                       0
    12   1      19.360000000000003                    1.76                    1.76
    13   1                       0                    3.52                       0
    14   1                    1.76      5.2800000000000002                    1.76
    15   1                    3.52                    3.52                       0
    16   1      5.2800000000000002      5.2800000000000002                    1.76
    17   1                    7.04                    3.52                       0
    18   1      8.8000000000000007      5.2800000000000002                    1.76
    19   1                   10.56                    3.52                       0
    20   1                   12.32      5.2800000000000002                    1.76
    21   1                   14.08                    3.52                       0
    22   1                   15.84      5.2800000000000002                    1.76
    23   1      17.600000000000001                    3.52                       0
    24   1      19.360000000000003      5.2800000000000002                    1.76
    25   1                       0                    7.04                       0
    26   1                    1.76      8.8000000000000007                    1.76
    27   1                    3.52                    7.04                       0
    28   1      5.2800000000000002      8.8000000000000007                    1.76
    29   1                    7.04                    7.04                       0
    30   1      8.8000000000000007      8.8000000000000007                    1.76
    31   1                   10.56                    7.04                       0
    32   1                   12.32      8.8000000000000007                    1.76
    33   1                   14.08                    7.04                       0
    34   1                   15.84      8.8000000000000007                    1.76
    35   1      17.600000000000001                    7.04                       0
    36   1      19.360000000000003      8.8000000000000007                    1.76
    37   1                       0                   10.56                       0
    38   1                    1.76                   12.32                    1.76
    39   1                    3.52                   10.56                       0
    40   1      5.2800000000000002                   12.32                    1.76
    41   1                    7.04                   10.56                       0
    42   1      8.8000000000000007                   12.32                    1.76
    43   1                   10.56                   10.56                       0
    44   1                   12.32                   12.32                    1.76
    45   1                   14.08                   10.56                       0
    46   1                   15.84                   12.32                    1.76
    47   1      17.600000000000001                   10.56                       0
    48   1      19.360000000000003                   12.32                    1.76
    49   1                       0                   14.08                       0
    50   1                    1.76                   15.84                    1.76
    51   1                    3.52                   14.08                       0
    52   1      5.2800000000000002                   15.84                    1.76
    53   1                    7.04                   14.08                       0
    54   1      8.8000000000000007                   15.84                    1.76
    55   1                   10.56                   14.08                       0
    56   1                   12.32                   15.84                    1.76
    57   1                   14.08                   14.08                       0
    58   1                   15.84                   15.84                    1.76
    59   1      17.600000000000001                   14.08                       0
    60   1      19.360000000000003                   15.84                    1.76
    61   1                       0      17.600000000000001                       0
    62   1                    1.76      19.360000000000003                    1.76
    63   1                    3.52      17.600000000000001                       0
    64   1      5.2800000000000002      19.360000000000003                    1.76
    65   1                    7.04      17.600000000000001                       0
    66   1      8.8000000000000007      19.360000000000003                    1.76
    67   1                   10.56      17.600000000000001                       0
    68   1                   12.32      19.360000000000003                    1.76
    69   1                   14.08      17.600000000000001                       0
    70   1                   15.84      19.360000000000003                    1.76
    71   1      17.600000000000001      17.600000000000001                       0
    72   1      19.360000000000003      19.360000000000003                    1.76
    73   1                       0                       0                    3.52
    74   1                    1.76                    1.76      5.2800000000000002
    75   1                    3.52                       0                    3.52
    76   1      5.2800000000000002                    1.76      5.2800000000000002
    77   1                    7.04                       0                    3.52
    78   1      8.8000000000000007                    1.76      5.2800000000000002
    79   1                   10.56                       0                    3.52
    80   1                   12.32                    1.76      5.2800000000000002
    81   1                   14.08                       0                    3.52
    82   1                   15.84                    1.76      5.2800000000000002
    83   1      17.600000000000001                       0                    3.52
    84   1      19.360000000000003                    1.76      5.2800000000000002
    85   1                       0                    3.52                    3.52
    86   1                    1.76      5.2800000000000002      5.2800000000000002
    87   1                    3.52                    3.52                    3.52
    88   1      5.2800000000000002      5.2800000000000002      5.2800000000000002
    89   1                    7.04                    3.52                    3.52
    90   1      8.8000000000000007      5.2800000000000002      5.2800000000000002
    91   1                   10.56                    3.52                    3.52
    92   1                   12.32      5.2800000000000002      5.2800000000000002
    93   1                   14.08                    3.52                    3.52
    94   1                   15.84      5.2800000000000002      5.2800000000000002
    95   1      17.600000000000001                    3.52                    3.52
    96   1      19.360000000000003      5.2800000000000002      5.2800000000000002
    97   1                       0                    7.04                    3.52
    98   1                    1.76      8.8000000000000007      5.2800000000000002
    99   1                    3.52                    7.04                    3.52
   100   1      5.2800000000000002      8.8000000000000007      5.2800000000000002
   101   1                    7.04                    7.04                    3.52
   102   1      8.8000000000000007      8.8000000000000007      5.2800000000000002
   103   1                   10.56                    7.04                    3.52
   104   1                   12.32      8.8000000000000007      5.2800000000000002
   105   1                   14.08                    7.04                    3.52
   106   1                   15.84      8.8000000000000007      5.2800000000000002
   107   1      17.600000000000001                    7.04                    3.52
   108   1      19.360000000000003      8.8000000000000007      5.2800000000000002
   109   1                       0                   10.56                    3.52
   110   1                    1.76                   12.32      5.2800000000000002
   111   1                    3.52                   10.56                    3.52
   112   1      5.2800000000000002                   12.32      5.2800000000000002
   113   1                    7.04                   10.56                    3.52
   114   1      8.8000000000000007                   12.32      5.2800000000000002
   115   1                   10.56                   10.56                    3.52
   116   1                   12.32                   12.32      5.2800000000000002
   117   1                   14.08                   10.56                    3.52
   118   1                   15.84                   12.32      5.2800000000000002
   119   1      17.600000000000001                   10.56                    3.52
   120   1      19.360000000000003                   12.32      5.2800000000000002
   121   1                       0                   14.08                    3.52
   122   1                    1.76                   15.84      5.2800000000000002
   123   1                    3.52                   14.08                    3.52
   124   1      5.2800000000000002                   15.84      5.2800000000000002
   125   1                    7.04                   14.08                    3.52
   126   1      8.8000000000000007                   15.84      5.2800000000000002
   127   1                   10.56                   14.08                    3.52
   128   1                   12.32                   15.84      5.2800000000000002
   129   1                   14.08                   14.08                    3.52
   130   1                   15.84                   15.84      5.2800000000000002
   131   1      17.600000000000001                   14.08                    3.52
   132   1      19.360000000000003                   15.84      5.2800000000000002
   133   1                       0      17.600000000000001                    3.52
   134   1                    1.76      19.360000000000003      5.2800000000000002
   135   1                    3.52      17.600000000000001                    3.52
   136   1      5.2800000000000002      19.360000000000003      5.2800000000000002
   137   1                    7.04      17.600000000000001                    3.52
   138   1      8.8000000000000007      19.360000000000003      5.2800000000000002
   139   1                   10.56      17.600000000000001                    3.52
   140   1                   12.32      19.360000000000003      5.2800000000000002
   141   1                   14.08      17.600000000000001                    3.52
   142   1                   15.84      19.360000000000003      5.2800000000000002
   143   1      17.600000000000001      17.600000000000001                    3.52
   144   1      19.360000000000003      19.360000000000003      5.2800000000000002
   145   1                       0                       0                    7.04
   146   1                    1.76                    1.76      8.8000000000000007
   147   1                    3.52                       0                    7.04
   148   1      5.2800000000000002                    1.76      8.8000000000000007
   149   1                    7.04                       0                    7.04
   150   1      8.8000000000000007                    1.76      8.8000000000000007
   151   1                   10.56                       0                    7.04
   152   1                   12.32                    1.76      8.8000000000000007
   153   1                   14.08                       0                    7.04
   154   1                   15.84                    1.76      8.8000000000000007
   155   1      17.600000000000001                       0                    7.04
   156   1      19.360000000000003                    1.76      8.8000000000000007
   157   1                       0                    3.52                    7.04
   158   1                    1.76      5.2800000000000002      8.8000000000000007
   159   1                    3.52                    3.52                    7.04
   160   1      5.2800000000000002      5.2800000000000002      8.8000000000000007
   161   1                    7.04                    3.52                    7.04
   162   1      8.8000000000000007      5.2800000000000002      8.8000000000000007
   163   1                   10.56                    3.52                    7.04
   164   1                   12.32      5.2800000000000002      8.8000000000000007
   165   1                   14.08                    3.52                    7.04
   166   1                   15.84      5.2800000000000002      8.8000000000000007
   167   1      17.600000000000001                    3.52                    7.04
   168   1      19.360000000000003      5.2800000000000002      8.8000000000000007
   169   1                       0                    7.04                    7.04
   170   1                    1.76      8.8000000000000007      8.8000000000000007
   171   1                    3.52                    7.04                    7.04
   172   1      5.2800000000000002      8.8000000000000007      8.8000000000000007
   173   1                    7.04                    7.04                    7.04
   174   1                   10.56                    7.04                    7.04
   175   1                   12.32      8.8000000000000007      8.8000000000000007
   176   1                   14.08                    7.04                    7.04
   177   1                   15.84      8.8000000000000007      8.8000000000000007
   178   1      17.600000000000001                    7.04                    7.04
   179   1      19.360000000000003      8.8000000000000007      8.8000000000000007
   180   1                       0                   10.56                    7.04
   181   1                    1.76                   12.32      8.8000000000000007
   182   1                    3.52                   10.56                    7.04
   183   1      5.2800000000000002                   12.32      8.8000000000000007
   184   1                    7.04                   10.56                    7.04
   185   1      8.8000000000000007                   12.32      8.8000000000000007
   186   1                   10.56                   10.56                    7.04
   187   1                   12.32                   12.32      8.8000000000000007
   188   1                   14.08                   10.56                    7.04
   189   1                   15.84                   12.32      8.8000000000000007
   190   1      17.600000000000001                   10.56                    7.04
   191   1      19.360000000000003                   12.32      8.8000000000000007
   192   1                       0                   14.08                    7.04
   193   1                    1.76                   15.84      8.8000000000000007
   194   1                    3.52                   14.08                    7.04
   195   1      5.2800000000000002                   15.84      8.8000000000000007
   196   1                    7.04                   14.08                    7.04
   197   1      8.8000000000000007                   15.84      8.8000000000000007
   198   1                   10.56                   14.08                    7.04
   199   1                   12.32                   15.84      8.8000000000000007
   200   1                   14.08                   14.08                    7.04
   201   1                   15.84                   15.84      8.8000000000000007
   202   1      17.600000000000001                   14.08                    7.04
   203   1      19.360000000000003                   15.84      8.8000000000000007
   204   1                       0      17.600000000000001                    7.04
   205   1                    1.76      19.360000000000003      8.8000000000000007
   206   1                    3.52      17.600000000000001                    7.04
   207   1      5.2800000000000002      19.360000000000003      8.8000000000000007
   208   1                    7.04      17.600000000000001                    7.04
   209   1      8.8000000000000007      19.360000000000003      8.8000000000000007
   210   1                   10.56      17.600000000000001                    7.04
   211   1                   12.32      19.360000000000003      8.8000000000000007
   212   1                   14.08      17.600000000000001                    7.04
   213   1                   15.84      19.360000000000003      8.8000000000000007
   214   1      17.600000000000001      17.600000000000001                    7.04
   215   1      19.360000000000003      19.360000000000003      8.8000000000000007
   216   1                       0                       0                   10.56
   217   1                    1.76                    1.76                   12.32
   218   1                    3.52                       0                   10.56
   219   1      5.2800000000000002                    1.76                   12.32
   220   1                    7.04                       0                   10.56
   221   1      8.8000000000000007                    1.76                   12.32
   222   1                   10.56                       0                   10.56
   223   1                   12.32                    1.76                   12.32
   224   1                   14.08                       0                   10.56
   225   1                   15.84                    1.76                   12.32
   226   1      17.600000000000001                       0                   10.56
   227   1      19.360000000000003                    1.76                   12.32
   228   1                       0                    3.52                   10.56
   229   1                    1.76      5.2800000000000002                   12.32
   230   1                    3.52                    3.52                   10.56
   231   1      5.2800000000000002      5.2800000000000002                   12.32
   232   1                    7.04                    3.52                   10.56
   233   1      8.8000000000000007      5.2800000000000002                   12.32
   234   1                   10.56                    3.52                   10.56
   235   1                   12.32      5.2800000000000002                   12.32
   236   1                   14.08                    3.52                   10.56
   237   1                   15.84      5.2800000000000002                   12.32
   238   1      17.600000000000001                    3.52                   10.56
   239   1      19.360000000000003      5.2800000000000002                   12.32
   240   1                       0                    7.04                   10.56
   241   1                    1.76      8.8000000000000007                   12.32
   242   1                    3.52                    7.04                   10.56
   243   1      5.2800000000000002      8.8000000000000007                   12.32
   244   1                    7.04                    7.04                   10.56
   245   1      8.8000000000000007      8.8000000000000007                   12.32
   246   1                   10.56                    7.04                   10.56
   247   1                   12.32      8.8000000000000007                   12.32
   248   1                   14.08                    7.04                   10.56
   249   1                   15.84      8.8000000000000007                   12.32
   250   1      17.600000000000001                    7.04                   10.56
   251   1      19.360000000000003      8.8000000000000007                   12.32
   252   1                       0                   10.56                   10.56
   253   1                    1.76                   12.32                   12.32
   254   1                    3.52                   10.56                   10.56
   255   1      5.2800000000000002                   12.32                   12.32
   256   1                    7.04                   10.56                   10.56
   257   1      8.8000000000000007                   12.32                   12.32
   258   1                   10.56                   10.56                   10.56
   259   1                   12.32                   12.32                   12.32
   260   1                   14.08                   10.56                   10.56
   261   1                   15.84                   12.32                   12.32
   262   1      17.600000000000001                   10.56                   10.56
   263   1      19.360000000000003                   12.32                   12.32
   264   1                       0                   14.08                   10.56
   265   1                    1.76                   15.84                   12.32
   266   1                    3.52                   14.08                   10.56
   267   1      5.2800000000000002                   15.84                   12.32
   268   1                    7.04                   14.08                   10.56
   269   1      8.8000000000000007                   15.84                   12.32
   270   1                   10.56                   14.08                   10.56
   271   1                   12.32                   15.84                   12.32
   272   1                   14.08                   14.08                   10.56
   273   1                   15.84                   15.84                   12.32
   274   1      17.600000000000001                   14.08                   10.56
   275   1      19.360000000000003                   15.84                   12.32
   276   1                       0      17.600000000000001                   10.56
   277   1                    1.76      19.360000000000003                   12.32
   278   1                    3.52      17.600000000000001                   10.56
   279   1      5.2800000000000002      19.360000000000003                   12.32
   280   1                    7.04      17.600000000000001                   10.56
   281   1      8.8000000000000007      19.360000000000003                   12.32
   282   1                   10.56      17.600000000000001                   10.56
   283   1                   12.32      19.360000000000003                   12.32
   284   1                   14.08      17.600000000000001                   10.56
   285   1                   15.84      19.360000000000003                   12.32
   286   1      17.600000000000001      17.600000000000001                   10.56
   287   1      19.360000000000003      19.360000000000003                   12.32
   288   1                       0                       0                   14.08
   289   1                    1.76                    1.76                   15.84
   290   1                    3.52                       0                   14.08
   291   1      5.2800000000000002                    1.76                   15.84
   292   1                    7.04                       0                   14.08
   293   1      8.8000000000000007                    1.76                   15.84
   294   1                   10.56                       0                   14.08
   295   1                   12.32                    1.76                   15.84
   296   1                   14.08                       0                   14.08
   297   1                   15.84                    1.76                   15.84
   298   1      17.600000000000001                       0                   14.08
   299   1      19.360000000000003                    1.76                   15.84
   300   1                       0                    3.52                   14.08
   301   1                    1.76      5.2800000000000002                   15.84
   302   1                    3.52                    3.52                   14.08
   303   1      5.2800000000000002      5.2800000000000002                   15.84
   304   1                    7.04                    3.52                   14.08
   305   1      8.8000000000000007      5.2800000000000002                   15.84
   306   1                   10.56                    3.52                   14.08
   307   1                   12.32      5.2800000000000002                   15.84
   308   1                   14.08                    3.52                   14.08
   309   1                   15.84      5.2800000000000002                   15.84
   310   1      17.600000000000001                    3.52                   14.08
   311   1      19.360000000000003      5.2800000000000002                   15.84
   312   1                       0                    7.04                   14.08
   313   1                    1.76      8.8000000000000007                   15.84
   314   1                    3.52                    7.04                   14.08
   315   1      5.2800000000000002      8.8000000000000007                   15.84
   316   1                    7.04                    7.04                   14.08
   317   1      8.8000000000000007      8.8000000000000007                   15.84
   318   1                   10.56                    7.04                   14.08
   319   1                   12.32      8.8000000000000007                   15.84
   320   1                   14.08                    7.04                   14.08
   321   1                   15.84      8.8000000000000007                   15.84
   322   1      17.600000000000001                    7.04                   14.08
   323   1      19.360000000000003      8.8000000000000007                   15.84
   324   1                       0                   10.56                   14.08
   325   1                    1.76                   12.32                   15.84
   326   1                    3.52                   10.56                   14.08
   327   1      5.2800000000000002                   12.32                   15.84
   328   1                    7.04                   10.56                   14.08
   329   1      8.8000000000000007                   12.32                   15.84
   330   1                   10.56                   10.56                   14.08
   331   1                   12.32                   12.32                   15.84
   332   1                   14.08                   10.56                   14.08
   333   1                   15.84                   12.32                   15.84
   334   1      17.600000000000001                   10.56                   14.08
   335   1      19.360000000000003                   12.32                   15.84
   336   1                       0                   14.08                   14.08
   337   1                    1.76                   15.84                   15.84
   338   1                    3.52                   14.08                   14.08
   339   1      5.2800000000000002                   15.84                   15.84
   340   1                    7.04                   14.08                   14.08
   341   1      8.8000000000000007                   15.84                   15.84
   342   1                   10.56                   14.08                   14.08
   343   1                   12.32                   15.84                   15.84
   344   1                   14.08                   14.08                   14.08
   345   1                   15.84                   15.84                   15.84
   346   1      17.600000000000001                   14.08                   14.08
   347   1      19.360000000000003                   15.84                   15.84
   348   1                       0      17.600000000000001                   14.08
   349   1                    1.76      19.360000000000003                   15.84
   350   1                    3.52      17.600000000000001                   14.08
   351   1      5.2800000000000002      19.360000000000003                   15.84
   352   1                    7.04      17.600000000000001                   14.08
   353   1      8.8000000000000007      19.360000000000003                   15.84
   354   1                   10.56      17.600000000000001                   14.08
   355   1                   12.32      19.360000000000003                   15.84
   356   1                   14.08      17.600000000000001                   14.08
   357   1                   15.84      19.360000000000003                   15.84
   358   1      17.600000000000001      17.600000000000001                   14.08
   359   1      19.360000000000003      19.360000000000003                   15.84