ITEM: TIMESTEP
0
ITEM: NUMBER OF ATOMS
433
ITEM: BOX BOUNDS pp pp pp
0.0000000000000000e+00 2.1120000000000001e+01
0.0000000000000000e+00 2.1120000000000001e+01
0.0000000000000000e+00 2.1120000000000001e+01
ITEM: ATOMS id type xu yu zu
1 1 0.0253007 0.0300911 0.0374532
2 1 1.80018 1.70383 1.7774
3 1 3.57748 -0.0836674 0.0764467
4 1 5.35603 1.65599 1.76136
5 1 7.13714 -0.0947827 -0.00312629
6 1 8.8453 1.71979 1.7593
7 1 10.5538 0.0260695 -0.0749117
8 1 12.2869 1.78637 1.71889
9 1 14.0334 0.0922442 -0.0816565
10 1 15.7505 1.85261 1.66712
11 1 17.5524 0.112815 -0.0365645
12 1 19.3172 1.81083 1.72153
13 1 0.105826 3.47639 -0.0213616
14 1 1.86965 5.19168 1.73124
15 1 3.60204 3.40011 -0.0169415
16 1 5.33572 5.13047 1.74024
17 1 7.06105 3.3901 -0.0662216
18 1 8.78397 5.14908 1.7163
19 1 10.4883 3.44367 -0.13393
20 1 12.2357 5.18036 1.64711
21 1 13.9859 3.49554 -0.177899
22 1 15.7493 5.22148 1.60826
23 1 17.5891 3.52801 -0.101766
24 1 19.3797 5.20001 1.64877
25 1 0.110811 6.99037 -0.0112237
26 1 1.80341 8.80525 1.73016
27 1 3.60762 7.0058 0.0298701
28 1 5.37982 8.78094 1.75858
29 1 7.05463 6.95133 0.027141
30 1 8.80989 8.7242 1.78667
31 1 10.4593 6.94333 -0.0674129
32 1 12.205 8.69239 1.70405
33 1 13.9423 6.94131 -0.126854
34 1 15.7178 8.65894 1.63686
35 1 17.5988 6.97168 -0.0575317
36 1 19.3664 8.71814 1.67076
37 1 0.0312964 10.616 0.0843843
38 1 1.79144 12.3939 1.83801
39 1 3.62274 10.6672 0.139169
40 1 5.40684 12.4508 1.84005
41 1 7.14141 10.6344 0.0782602
42 1 8.90589 12.3948 1.80785
43 1 10.5237 10.5466 -0.0156418
44 1 12.3129 12.2909 1.76071
45 1 13.9594 10.4744 -0.0300769
46 1 15.7068 12.2257 1.76322
47 1 17.5096 10.495 -0.0129034
48 1 19.2419 12.2904 1.74925
49 1 -0.0368346 14.124 0.150159
50 1 1.69928 15.892 1.87214
51 1 3.6065 14.2183 0.158732
52 1 5.40095 15.946 1.87031
53 1 7.18206 14.2463 0.104338
54 1 8.95896 15.9659 1.87009
55 1 10.6185 14.1631 0.0248224
56 1 12.3515 15.9109 1.80848
57 1 14.0288 14.0983 0.00897276
58 1 15.7414 15.8934 1.77062
59 1 17.4525 14.0592 0.0440144
60 1 19.1963 15.8658 1.80632
61 1 -0.076239 17.6032 0.104026
62 1 1.72055 19.361 1.80854
63 1 3.54898 17.6163 0.149744
64 1 5.39 19.3673 1.83528
65 1 7.15545 17.6582 0.0806884
66 1 8.93435 19.4053 1.84621
67 1 10.6204 17.6793 0.0061507
68 1 12.326 19.4821 1.7515
69 1 14.0135 17.6916 0.014075
70 1 15.773 19.4772 1.73423
71 1 17.5441 17.6872 0.0321775
72 1 19.2585 19.4683 1.74456
73 1 -0.0840586 0.0134548 3.48808
74 1 1.71234 1.71012 5.21292
75 1 3.54594 -0.072562 3.5375
76 1 5.27514 1.66711 5.28605
77 1 7.12897 -0.0177514 3.59616
78 1 8.84222 1.74193 5.38311
79 1 10.6425 0.0631002 3.62854
80 1 12.3736 1.817 5.40336
81 1 14.0682 0.120284 3.54386
82 1 15.8161 1.86408 5.32934
83 1 17.4928 0.125317 3.4732
84 1 19.3176 1.83627 5.21259
85 1 0.0219092 3.50185 3.45658
86 1 1.8117 5.24586 5.15906
87 1 3.55595 3.37822 3.47706
88 1 5.21193 5.13912 5.20709
89 1 7.07929 3.41258 3.55772
90 1 8.80723 5.17629 5.33856
91 1 10.5619 3.46262 3.54869
92 1 12.321 5.21544 5.32173
93 1 14.0487 3.52991 3.49754
94 1 15.804 5.27237 5.29419
95 1 17.5135 3.55756 3.44801
96 1 19.3436 5.25586 5.14564
97 1 0.0334435 6.95103 3.38339
98 1 1.7689 8.76362 5.1064
99 1 3.58937 7.01671 3.42702
100 1 5.32342 8.79726 5.18539
101 1 7.0504 6.89737 3.51292
102 1 8.78689 8.68494 5.23607
103 1 10.5132 6.89498 3.50649
104 1 12.3044 8.61159 5.27546
105 1 14.007 6.89323 3.4324
106 1 15.8232 8.6091 5.20198
107 1 17.5407 6.94455 3.35753
108 1 19.3567 8.70182 5.07911
109 1 -0.0229914 10.5543 3.41911
110 1 1.72797 12.3279 5.14805
111 1 3.5886 10.5787 3.43977
112 1 5.30023 12.3608 5.18244
113 1 7.13462 10.5716 3.50342
114 1 8.9047 12.3309 5.30062
115 1 10.5858 10.5001 3.54027
116 1 12.3581 12.1852 5.30884
117 1 14.0089 10.3632 3.481
118 1 15.7712 12.1461 5.20837
119 1 17.4798 10.3952 3.3841
120 1 19.2443 12.228 5.12323
121 1 -0.151153 14.0869 3.4947
122 1 1.64306 15.8822 5.21296
123 1 3.56552 14.1813 3.54343
124 1 5.33451 15.9359 5.28241
125 1 7.1844 14.186 3.59493
126 1 8.95746 15.9167 5.35575
127 1 10.686 14.1022 3.59248
128 1 12.4209 15.8809 5.35531
129 1 14.0574 14.048 3.5453
130 1 15.799 15.8864 5.25363
131 1 17.4298 14.0303 3.48999
132 1 19.2002 15.8434 5.20519
133 1 -0.15864 17.6679 3.51871
134 1 1.65491 19.3819 5.24924
135 1 3.50768 17.6484 3.56765
136 1 5.30333 19.3652 5.35992
137 1 7.15064 17.6932 3.63714
138 1 8.9231 19.4307 5.41536
139 1 10.6985 17.7039 3.63497
140 1 12.4348 19.4891 5.42583
141 1 14.0767 17.7409 3.56791
142 1 15.8121 19.5155 5.3374
143 1 17.4889 17.7079 3.50196
144 1 19.2138 19.4803 5.26416
145 1 -0.0831494 0.0638344 6.99451
146 1 1.68715 1.77998 8.77898
147 1 3.42173 -0.0294784 7.01592
148 1 5.16792 1.70319 8.81444
149 1 7.0593 -0.0168183 7.12323
150 1 8.7435 1.76204 8.88841
151 1 10.6501 0.0744987 7.20471
152 1 12.3473 1.85963 8.95827
153 1 14.1622 0.156401 7.19419
154 1 15.9472 1.89841 8.9557
155 1 17.6073 0.171751 7.08695
156 1 19.4463 1.87747 8.84011
157 1 0.00587663 3.55527 6.93297
158 1 1.72936 5.31482 8.72332
159 1 3.43211 3.44815 7.00121
160 1 5.14112 5.27053 8.78458
161 1 6.93308 3.44749 7.07146
162 1 8.64765 5.21932 8.84495
163 1 10.5492 3.51565 7.16313
164 1 12.2912 5.29119 8.93635
165 1 14.123 3.57964 7.19302
166 1 15.9331 5.33096 8.89239
167 1 17.6345 3.57019 7.06396
168 1 19.4415 5.3154 8.79234
169 1 0.0026395 7.00857 6.87881
170 1 1.70411 8.80381 8.63287
171 1 3.49164 7.02756 6.90381
172 1 5.1932 8.80337 8.64159
173 1 6.87473 6.86472 6.8984
174 1 8.46719 8.53467 8.52945
175 1 10.556 6.95323 7.11902
176 1 12.3603 8.74207 8.91929
177 1 14.0834 6.96527 7.11541
178 1 15.9586 8.69554 8.81063
179 1 17.6668 6.97385 6.97876
180 1 19.4046 8.76183 8.72749
181 1 -0.0550417 10.497 6.82573
182 1 1.69053 12.2673 8.58809
183 1 3.48492 10.556 6.85832
184 1 5.23641 12.334 8.59302
185 1 7.05127 10.6083 6.93878
186 1 8.84251 12.4132 8.71314
187 1 10.5216 10.3738 7.01657
188 1 12.3378 12.1472 8.68404
189 1 14.0967 10.3465 7.01184
190 1 15.8687 12.1526 8.70342
191 1 17.5968 10.39 6.89838
192 1 19.3184 12.2001 8.65074
193 1 -0.121855 14.0243 6.85625
194 1 1.61291 15.7748 8.62243
195 1 3.47276 14.1128 6.90008
196 1 5.23549 15.8417 8.66602
197 1 7.06997 14.1353 6.95145
198 1 8.89034 15.816 8.78393
199 1 10.7129 14.0744 7.05351
200 1 12.4733 15.8158 8.84702
201 1 14.1285 13.9847 7.02024
202 1 15.8715 15.7705 8.78386
203 1 17.5178 13.9809 6.91789
204 1 19.2698 15.7654 8.66415
205 1 -0.154592 17.6148 6.92861
206 1 1.62755 19.3326 8.69112
207 1 3.42986 17.5936 6.97812
208 1 5.18863 19.3306 8.7539
209 1 7.13657 17.6333 7.08103
210 1 8.87526 19.3795 8.86289
211 1 10.7024 17.652 7.14156
212 1 12.4542 19.4369 8.90738
213 1 14.1736 17.6617 7.1113
214 1 15.9131 19.4855 8.85543
215 1 17.5379 17.6515 7.03713
216 1 19.3244 19.4287 8.75168
217 1 -0.0150049 -0.00427446 10.5493
218 1 1.73415 1.73723 12.3406
219 1 3.37551 -0.0593607 10.5051
220 1 5.11784 1.65083 12.2887
221 1 6.96062 -0.0716025 10.5452
222 1 8.68292 1.74214 12.2994
223 1 10.5894 0.0442883 10.6424
224 1 12.336 1.85115 12.3604
225 1 14.1762 0.109963 10.6795
226 1 15.9622 1.86341 12.4199
227 1 17.7024 0.101364 10.6229
228 1 19.4928 1.82039 12.3906
229 1 0.0840999 3.61449 10.6049
230 1 1.80435 5.38685 12.3956
231 1 3.41819 3.51614 10.5734
232 1 5.13232 5.33253 12.3529
233 1 6.85242 3.47468 10.5929
234 1 8.5672 5.28584 12.3341
235 1 10.4638 3.57339 10.6502
236 1 12.2351 5.33551 12.3649
237 1 14.1578 3.63992 10.6887
238 1 15.9979 5.34695 12.4488
239 1 17.7498 3.6301 10.6768
240 1 19.5392 5.36568 12.4415
241 1 0.0585151 7.08601 10.5571
242 1 1.77987 8.89892 12.3299
243 1 3.43239 7.11056 10.4972
244 1 5.1611 8.89279 12.2952
245 1 6.87052 7.09019 10.5716
246 1 8.64005 8.84348 12.3834
247 1 10.3587 6.99939 10.5674
248 1 12.1905 8.6797 12.3269
249 1 14.1628 7.05641 10.687
250 1 15.9762 8.7938 12.4879
251 1 17.7416 7.05955 10.6637
252 1 19.4908 8.83435 12.4035
253 1 0.0176919 10.5551 10.4906
254 1 1.73643 12.3447 12.2709
255 1 3.45876 10.5858 10.4118
256 1 5.19673 12.3571 12.202
257 1 6.8927 10.5552 10.4047
258 1 8.7202 12.2867 12.1616
259 1 9.98927 10.1327 10.1368
260 1 12.9351 13.1049 13.1323
261 1 14.292 10.4479 10.6269
262 1 15.9563 12.2783 12.4498
263 1 17.6691 10.5017 10.5841
264 1 19.4137 12.2901 12.3237
265 1 -0.0651364 13.9989 10.4236
266 1 1.67386 15.7506 12.2245
267 1 3.41542 14.0511 10.3687
268 1 5.17623 15.7804 12.1579
269 1 6.96999 14.064 10.4321
270 1 8.75606 15.8281 12.1746
271 1 10.6832 14.1204 10.5775
272 1 12.4906 15.9163 12.315
273 1 14.1214 13.887 10.4947
274 1 15.9615 15.7552 12.1967
275 1 17.6131 13.9337 10.4914
276 1 19.3496 15.7574 12.2656
277 1 -0.0946377 17.5097 10.4432
278 1 1.67638 19.2333 12.2277
279 1 3.34881 17.5124 10.4155
280 1 5.12444 19.2332 12.1929
281 1 6.99819 17.5705 10.4633
282 1 8.7761 19.3022 12.2531
283 1 10.666 17.5993 10.5402
284 1 12.3833 19.3632 12.3305
285 1 14.2291 17.6436 10.5792
286 1 15.9977 19.4074 12.3479
287 1 17.6548 17.594 10.4932
288 1 19.416 19.324 12.3047
289 1 0.049616 -0.066593 14.0962
290 1 1.81732 1.69458 15.8624
291 1 3.4094 -0.155366 14.0208
292 1 5.19234 1.5777 15.7955
293 1 6.91397 -0.133716 13.9766
294 1 8.66151 1.6801 15.6997
295 1 10.5179 0.000684805 14.0153
296 1 12.3105 1.78429 15.7079
297 1 14.1564 0.00164669 14.0535
298 1 15.9247 1.78256 15.8044
299 1 17.7535 0.0258632 14.1135
300 1 19.5255 1.76572 15.8906
301 1 0.132673 3.57552 14.1692
302 1 1.88037 5.31081 15.9669
303 1 3.50003 3.49059 14.1096
304 1 5.21853 5.29245 15.8742
305 1 6.84393 3.45136 14.0529
306 1 8.59546 5.25499 15.7977
307 1 10.4173 3.54671 14.0457
308 1 12.2153 5.29481 15.7704
309 1 14.1127 3.60825 14.0952
310 1 15.9074 5.31399 15.8792
311 1 17.7853 3.57888 14.1715
312 1 19.5588 5.33757 15.9564
313 1 0.174403 7.14263 14.2223
314 1 1.86234 8.96112 16.0233
315 1 3.50347 7.16844 14.1849
316 1 5.25412 8.948 15.9211
317 1 6.8688 7.12084 14.1174
318 1 8.66743 8.92139 15.8502
319 1 10.3475 7.04721 14.113
320 1 12.1695 8.81503 15.8014
321 1 14.0617 7.06069 14.1199
322 1 15.8929 8.79189 15.899
323 1 17.7807 7.08286 14.2239
324 1 19.5455 8.85227 16.0004
325 1 0.0841837 10.653 14.1971
326 1 1.79703 12.397 15.9788
327 1 3.49935 10.6743 14.1134
328 1 5.25821 12.4551 15.8658
329 1 6.94665 10.7034 14.0492
330 1 8.73065 12.4053 15.8791
331 1 10.4797 10.6604 14.1154
332 1 12.3271 12.3901 15.9414
333 1 14.0038 10.4733 14.0974
334 1 15.8558 12.173 15.946
335 1 17.7521 10.5775 14.2396
336 1 19.4365 12.3512 16.0581
337 1 -0.0241515 14.062 14.1568
338 1 1.71967 15.8208 15.9323
339 1 3.47721 14.1084 14.0577
340 1 5.24275 15.8314 15.8161
341 1 6.97751 14.0888 13.971
342 1 8.7007 15.874 15.7424
343 1 10.3721 14.0821 13.9947
344 1 12.3312 15.7915 15.7175
345 1 14.718 14.4364 14.5004
346 1 16.1124 16.0902 16.1219
347 1 17.7599 14.0387 14.2142
348 1 19.3998 15.8401 15.9958
349 1 -0.013912 17.4981 14.0831
350 1 1.74678 19.2509 15.8726
351 1 3.42198 17.4807 14.0232
352 1 5.1863 19.2283 15.7822
353 1 6.92776 17.5281 13.9394
354 1 8.74196 19.2741 15.697
355 1 10.5568 17.5509 13.9831
356 1 12.3527 19.3427 15.7044
357 1 14.2566 17.6049 14.0699
358 1 15.9711 19.3882 15.8377
359 1 17.6928 17.5307 14.053
360 1 19.4044 19.3185 15.8644
361 1 0.0468532 -0.0696592 17.6367
362 1 1.85018 1.64401 19.3851
363 1 3.50731 -0.153532 17.6266
364 1 5.32124 1.58965 19.3578
365 1 7.00202 -0.145524 17.5075
366 1 8.76217 1.66722 19.217
367 1 10.513 -0.034914 17.4105
368 1 12.2402 1.73582 19.167
369 1 14.0855 0.0360928 17.4704
370 1 15.8242 1.79166 19.2374
371 1 17.6753 0.0369213 17.5935
372 1 19.4182 1.78899 19.3483
373 1 0.140315 3.48774 17.6657
374 1 1.88828 5.23917 19.391
375 1 3.58462 3.39927 17.6195
376 1 5.31398 5.21211 19.3451
377 1 6.95491 3.38782 17.533
378 1 8.71293 5.21119 19.2614
379 1 10.4303 3.471 17.4344
380 1 12.1752 5.23836 19.2027
381 1 14.0542 3.53713 17.4993
382 1 15.8174 5.27184 19.2652
383 1 17.6938 3.54245 17.5693
384 1 19.4609 5.28007 19.3604
385 1 0.179144 7.11152 17.7226
386 1 1.86823 8.9113 19.5042
387 1 3.59122 7.12568 17.7349
388 1 5.3421 8.87804 19.4887
389 1 6.95444 7.07514 17.6022
390 1 8.71819 8.79704 19.3708
391 1 10.3909 7.04977 17.5216
392 1 12.1915 8.73837 19.2995
393 1 14.0023 7.03383 17.5327
394 1 15.7699 8.72628 19.3251
395 1 17.6864 7.05673 17.6514
396 1 19.4558 8.79293 19.4584
397 1 0.0967656 10.6652 17.7987
398 1 1.83288 12.4415 19.5625
399 1 3.6117 10.7337 17.7815
400 1 5.37391 12.4743 19.5328
401 1 6.99577 10.6944 17.6805
402 1 8.84084 12.4523 19.399
403 1 10.4753 10.6234 17.61
404 1 12.2844 12.3628 19.3371
405 1 13.9859 10.4964 17.6087
406 1 15.7615 12.2673 19.3772
407 1 17.662 10.5112 17.7285
408 1 19.3406 12.3387 19.5224
409 1 0.0416037 14.125 17.8176
410 1 1.77918 15.8963 19.5344
411 1 3.55866 14.1763 17.7424
412 1 5.34905 15.9197 19.4929
413 1 7.03112 14.1819 17.6591
414 1 8.86651 15.9588 19.3606
415 1 10.5651 14.205 17.5515
416 1 12.3451 15.9121 19.3258
417 1 14.1435 14.1509 17.6388
418 1 15.8151 15.9419 19.4338
419 1 17.5598 14.0322 17.7167
420 1 19.2984 15.8098 19.4815
421 1 0.00582164 17.6073 17.7483
422 1 1.78944 19.3017 19.4725
423 1 3.52352 17.5422 17.6713
424 1 5.30516 19.297 19.4069
425 1 7.01182 17.5921 17.5791
426 1 8.85361 19.3267 19.2842
427 1 10.5672 17.5929 17.4656
428 1 12.2969 19.4229 19.2597
429 1 14.0496 17.6647 17.5449
430 1 15.7781 19.4453 19.3443
431 1 17.7208 17.7412 17.8001
432 1 19.4001 19.4443 19.4712
433 1 11.7448 11.4864 11.5222
