ITEM: TIMESTEP
0
ITEM: NUMBER OF ATOMS
433
ITEM: BOX BOUNDS pp pp pp
0.0000000000000000e+00 2.1120000000000001e+01
0.0000000000000000e+00 2.1120000000000001e+01
0.0000000000000000e+00 2.1120000000000001e+01
ITEM: ATOMS id xu yu zu
1 -0.00129339 -0.0780544 0.0520181
2 1.60632 1.73077 1.80042
3 3.46512 0.0824933 0.0642101
4 5.1955 1.88825 1.83256
5 6.94002 0.144626 0.0627694
6 8.76988 1.84679 1.80467
7 10.5043 0.0722246 0.0953593
8 12.3696 1.76227 1.80722
9 14.1443 -0.0544955 0.12717
10 15.9563 1.65056 1.84141
11 17.7168 -0.10145 0.110429
12 19.409 1.70829 1.83548
13 -0.06161 3.53557 0.0582662
14 1.62644 5.39841 1.77906
15 3.35939 3.54617 0.0314112
16 5.11004 5.2854 1.75875
17 6.96075 3.56556 0.0219119
18 8.78869 5.33 1.76673
19 10.5847 3.5512 0.07098
20 12.4481 5.30521 1.75352
21 14.2165 3.45342 0.0804187
22 15.9347 5.27619 1.76939
23 17.6535 3.4554 0.0674916
24 19.3409 5.33414 1.79052
25 -0.0938963 7.05123 -0.092892
26 1.65901 8.81329 1.66909
27 3.3877 7.00235 -0.0868165
28 5.14859 8.7214 1.6825
29 6.96252 6.97446 -0.0142094
30 8.76127 8.71651 1.69326
31 10.6277 6.98369 -0.0138547
32 12.3842 8.83073 1.66199
33 14.2162 7.05846 0.0112421
34 15.9306 8.93557 1.67323
35 17.6626 7.07575 -0.0232549
36 19.399 8.91656 1.68164
37 0.0264122 10.5985 -0.160772
38 1.77797 12.3012 1.70472
39 3.4301 10.4794 -0.134798
40 5.2259 12.185 1.64754
41 6.94405 10.3811 -0.117502
42 8.70885 12.1881 1.61029
43 10.5247 10.4566 -0.110983
44 12.2366 12.3043 1.64011
45 14.1367 10.646 -0.0685846
46 15.8998 12.4186 1.67442
47 17.6933 10.6783 -0.125964
48 19.463 12.3711 1.70051
49 0.139594 14.0856 -0.078722
50 1.84811 15.7594 1.78437
51 3.56289 14.0243 -0.098145
52 5.24756 15.7706 1.74673
53 6.96353 14.0132 -0.0829872
54 8.65559 15.798 1.71536
55 10.4197 14.0648 -0.0557068
56 12.1813 15.8201 1.73202
57 14.0189 14.1193 -0.0107726
58 15.8775 15.7891 1.73644
59 17.7356 14.1343 -0.0431884
60 19.5252 15.7808 1.76408
61 0.143696 17.5424 0.00902128
62 1.80205 19.3175 1.80866
63 3.54191 17.6029 0.0277613
64 5.21382 19.4348 1.8018
65 6.92532 17.6606 0.0222556
66 8.6699 19.4239 1.77697
67 10.4194 17.6521 0.0483211
68 12.2446 19.3448 1.79403
69 14.0469 17.5706 0.073107
70 15.9147 19.2479 1.80628
71 17.7102 17.5119 0.0361562
72 19.463 19.1988 1.82713
73 0.0146785 -0.102919 3.59381
74 1.66028 1.77364 5.38765
75 3.44044 0.035749 3.54589
76 5.13922 1.83219 5.25637
77 6.9635 0.101068 3.53487
78 8.81734 1.85546 5.22858
79 10.5205 0.0374572 3.50404
80 12.3917 1.75555 5.18226
81 14.1039 -0.122925 3.50802
82 15.9113 1.64842 5.22136
83 17.7011 -0.151759 3.55553
84 19.3698 1.68928 5.2878
85 -0.0523069 3.57054 3.59133
86 1.60399 5.3591 5.34266
87 3.23107 3.50026 3.47349
88 4.95173 5.10693 5.05901
89 7.02884 3.61212 3.53858
90 8.89948 5.3885 5.25047
91 10.6234 3.59613 3.48091
92 12.4759 5.32672 5.16409
93 14.2026 3.5037 3.498
94 15.8869 5.3927 5.2397
95 17.6588 3.53034 3.55993
96 19.3024 5.40337 5.3058
97 -0.0755887 7.18361 3.54704
98 1.69468 8.86986 5.39303
99 3.37808 7.14292 3.57227
100 5.25642 8.83905 5.29392
101 6.92181 7.00104 3.44539
102 8.76624 8.76453 5.10396
103 10.6516 7.07422 3.44854
104 12.38 8.91113 5.18132
105 14.1915 7.15507 3.43829
106 15.8488 8.9442 5.23056
107 17.6156 7.19251 3.47406
108 19.2926 8.92501 5.3292
109 0.0152885 10.6086 3.54049
110 1.82139 12.259 5.37706
111 3.45265 10.5082 3.49568
112 5.27826 12.2069 5.28978
113 6.95013 10.4833 3.42687
114 8.74842 12.1892 5.21037
115 10.5456 10.5336 3.40979
116 12.261 12.2991 5.20756
117 14.1032 10.6773 3.38935
118 15.843 12.3788 5.19519
119 17.6636 10.6803 3.4587
120 19.4001 12.3417 5.35726
121 0.0958942 14.0204 3.59953
122 1.90136 15.7393 5.38707
123 3.55894 13.9629 3.51977
124 5.30884 15.718 5.30422
125 6.98033 13.9419 3.44335
126 8.67899 15.7298 5.18767
127 10.4322 13.9693 3.42446
128 12.1933 15.7714 5.16445
129 14.0043 14.0591 3.42095
130 15.8432 15.7689 5.18483
131 17.7004 14.0873 3.48397
132 19.46 15.7606 5.35255
133 0.148584 17.489 3.5927
134 1.83242 19.2954 5.35883
135 3.56648 17.5445 3.57655
136 5.26296 19.4018 5.29178
137 6.9387 17.5707 3.50003
138 8.70413 19.376 5.21274
139 10.4107 17.5769 3.47254
140 12.2388 19.2978 5.18587
141 14.0324 17.5135 3.47574
142 15.8658 19.2061 5.22307
143 17.6884 17.4554 3.51193
144 19.4187 19.1681 5.31151
145 -0.0316585 -0.129523 7.06281
146 1.66036 1.74151 8.79507
147 3.49928 0.0323773 7.06858
148 5.27366 1.85064 8.77016
149 7.02467 0.101528 6.98643
150 8.87444 1.85029 8.6477
151 10.5556 0.0227745 6.90549
152 12.3726 1.74732 8.65152
153 14.0799 -0.0974256 6.90117
154 15.8494 1.66612 8.66677
155 17.6058 -0.138681 6.97444
156 19.2882 1.69514 8.72305
157 -0.110055 3.56673 7.06235
158 1.64263 5.29772 8.85765
159 3.42655 3.57314 7.11476
160 5.30807 5.28607 8.90247
161 6.98931 3.5474 6.93431
162 8.86601 5.22907 8.66232
163 10.7054 3.582 6.9115
164 12.466 5.25607 8.72189
165 14.1693 3.49361 6.91451
166 15.8198 5.28668 8.75
167 17.5782 3.52036 6.97083
168 19.2263 5.33363 8.82015
169 -0.100819 7.16043 7.15118
170 1.73724 8.81492 8.93067
171 3.43503 7.02794 7.08441
172 5.36295 8.66786 8.83128
173 6.59316 6.60451 6.63056
174 10.8351 7.06958 6.96867
175 12.4089 8.90367 8.85988
176 14.1346 7.16078 7.01125
177 15.7807 8.92983 8.86964
178 17.538 7.1639 7.07059
179 19.2222 8.9232 8.91606
180 -0.0104569 10.6004 7.18898
181 1.84827 12.2796 8.95963
182 3.58301 10.5072 7.18733
183 5.38422 12.2718 8.94642
184 7.07601 10.5892 7.12398
185 8.87848 12.296 8.94176
186 10.5111 10.497 7.00742
187 12.3 12.3823 8.70079
188 14.0966 10.6301 7.01695
189 15.7337 12.4322 8.8485
190 17.5254 10.6758 7.08892
191 19.3072 12.3731 8.88392
192 0.106702 14.0197 7.1517
193 1.89592 15.7933 8.87668
194 3.63734 13.9612 7.14064
195 5.40249 15.7754 8.85717
196 7.09246 13.9661 7.07603
197 8.80603 15.8052 8.80887
198 10.4474 14.0028 6.97589
199 12.2243 15.825 8.70139
200 14.0308 14.1102 6.92466
201 15.7402 15.8275 8.74898
202 17.5697 14.0677 7.04833
203 19.3603 15.7747 8.80949
204 0.120711 17.4997 7.10425
205 1.84582 19.3305 8.81956
206 3.6437 17.5628 7.10835
207 5.35899 19.4305 8.78852
208 7.03371 17.5957 7.01167
209 8.80636 19.4153 8.69945
210 10.4374 17.5486 6.92013
211 12.2571 19.3239 8.64801
212 13.985 17.5209 6.89821
213 15.7462 19.247 8.67127
214 17.5699 17.4708 7.01481
215 19.3224 19.2184 8.75857
216 -0.0737425 -0.0897433 10.4786
217 1.63763 1.748 12.2152
218 3.5572 0.0712808 10.5328
219 5.33924 1.82643 12.2635
220 7.14648 0.119192 10.4661
221 8.91827 1.79675 12.2673
222 10.5939 0.0528602 10.4218
223 12.3869 1.69321 12.2748
224 14.0492 -0.0694262 10.432
225 15.8274 1.63277 12.2571
226 17.521 -0.120971 10.426
227 19.2229 1.60645 12.2243
228 -0.173079 3.46367 10.4964
229 1.58509 5.25275 12.2318
230 3.44332 3.5211 10.5585
231 5.34053 5.24371 12.2747
232 7.16211 3.55566 10.5116
233 8.95606 5.20788 12.349
234 10.6653 3.50665 10.4826
235 12.4441 5.15879 12.3325
236 14.129 3.40835 10.4709
237 15.7856 5.19387 12.3136
238 17.5242 3.45782 10.482
239 19.2187 5.24378 12.278
240 -0.150283 7.08962 10.5817
241 1.68731 8.77078 12.3313
242 3.50921 7.0078 10.6083
243 5.3669 8.65336 12.3918
244 7.25449 7.02112 10.6254
245 8.97575 8.7391 12.5462
246 10.689 6.85355 10.5385
247 12.3471 8.72863 12.3774
248 14.0888 7.04206 10.5695
249 15.7602 8.86243 12.4056
250 17.4542 7.08404 10.603
251 19.2186 8.85276 12.3369
252 -0.0597567 10.6396 10.6765
253 1.82385 12.304 12.3607
254 3.62638 10.4617 10.6648
255 5.35218 12.2804 12.4311
256 7.01533 10.4513 10.676
257 8.81968 12.2799 12.4326
258 11.0803 11.0262 11.0137
259 12.5021 12.6383 12.6791
260 14.103 10.7215 10.6942
261 15.7739 12.5248 12.4764
262 17.4748 10.7206 10.6747
263 19.2969 12.454 12.394
264 0.0344475 14.0958 10.5982
265 1.85333 15.8791 12.2996
266 3.64215 14.0796 10.6611
267 5.40158 15.8887 12.3686
268 7.15923 14.0595 10.7091
269 8.86088 15.9405 12.4178
270 10.5816 14.1627 10.6516
271 12.2536 15.9659 12.4369
272 13.9546 14.1897 10.5924
273 15.7256 15.9457 12.3608
274 17.5117 14.1736 10.6096
275 19.3582 15.9139 12.3143
276 0.0377674 17.5566 10.5183
277 1.79564 19.3816 12.2121
278 3.6841 17.6231 10.5711
279 5.39906 19.5222 12.2602
280 7.13344 17.655 10.5597
281 8.86591 19.471 12.2695
282 10.5561 17.6378 10.5102
283 12.2937 19.4084 12.291
284 13.9754 17.5888 10.4951
285 15.7728 19.3266 12.2739
286 17.53 17.5481 10.5089
287 19.3034 19.3039 12.243
288 -0.0452724 -0.0498685 13.9772
289 1.67075 1.7645 15.7454
290 3.49415 0.0809599 13.9636
291 5.21139 1.814 15.7583
292 7.11781 0.119768 14.0832
293 8.85504 1.79293 15.9154
294 10.6139 0.0417882 14.1233
295 12.3868 1.70601 15.9635
296 14.0991 -0.0473899 14.1133
297 15.8807 1.65153 15.904
298 17.5419 -0.111062 14.0758
299 19.3301 1.64754 15.8007
300 -0.154854 3.44325 13.9684
301 1.61386 5.18356 15.7163
302 3.44362 3.51632 13.9598
303 5.2338 5.19481 15.7734
304 7.11938 3.50502 14.0575
305 8.89979 5.15671 15.9066
306 10.6792 3.42556 14.1345
307 12.4578 5.14978 15.9269
308 14.1376 3.36058 14.1092
309 15.8633 5.15262 15.8459
310 17.5567 3.38781 14.0214
311 19.2533 5.18819 15.7705
312 -0.161147 7.00245 14.023
313 1.66476 8.72794 15.7249
314 3.44417 6.92565 14.0134
315 5.26459 8.61299 15.7834
316 7.14277 6.90232 14.1176
317 8.91109 8.65216 15.8739
318 10.7264 6.8979 14.1634
319 12.4171 8.74978 15.9228
320 14.1173 6.97099 14.1374
321 15.8606 8.82232 15.8872
322 17.5143 7.00698 14.0711
323 19.2855 8.81226 15.8033
324 -0.0590853 10.5981 14.0467
325 1.80536 12.3234 15.7441
326 3.54145 10.4444 14.0618
327 5.30498 12.2564 15.8211
328 7.10449 10.4577 14.1648
329 8.79839 12.2892 15.9038
330 10.6769 10.5876 14.2219
331 12.311 12.4119 15.9984
332 14.0604 10.5952 14.1915
333 15.818 12.4358 15.901
334 17.5521 10.6509 14.1397
335 19.3642 12.4399 15.8134
336 0.0704617 14.1666 14.0554
337 1.861 15.9771 15.7318
338 3.59963 14.1277 14.0752
339 5.33493 15.977 15.8056
340 7.08557 14.1236 14.1692
341 8.74898 15.9977 15.9358
342 10.4932 14.1712 14.2252
343 12.1815 15.98 15.9973
344 14.0838 14.3308 14.3291
345 15.833 15.9977 15.9899
346 17.5653 14.2571 14.153
347 19.4359 15.9534 15.811
348 0.0415753 17.6802 13.9809
349 1.78208 19.4335 15.7571
350 3.62715 17.727 13.9784
351 5.29064 19.5294 15.7813
352 7.10579 17.7734 14.0839
353 8.79533 19.5029 15.9399
354 10.5444 17.7795 14.1808
355 12.3074 19.4691 15.9838
356 14.0124 17.7008 14.2007
357 15.8321 19.3355 15.97
358 17.5619 17.6513 14.1017
359 19.4059 19.3644 15.8288
360 0.0126828 -0.019872 17.5954
361 1.65389 1.77804 19.3978
362 3.44542 0.0981025 17.5594
363 5.14758 1.8311 19.3925
364 6.96409 0.123906 17.6282
365 8.75439 1.82042 19.4367
366 10.5558 0.0726991 17.7488
367 12.3757 1.73952 19.511
368 14.1357 -0.0292597 17.768
369 15.9407 1.64909 19.4733
370 17.6576 -0.0972528 17.678
371 19.3644 1.69176 19.4163
372 -0.0906511 3.44295 17.559
373 1.61727 5.24561 19.3021
374 3.38883 3.5043 17.5506
375 5.18489 5.24813 19.3425
376 6.97279 3.49613 17.6071
377 8.79252 5.2253 19.3866
378 10.6538 3.48846 17.7167
379 12.4654 5.22674 19.4622
380 14.1878 3.42331 17.713
381 15.927 5.21569 19.4217
382 17.6071 3.40609 17.6278
383 19.3103 5.22074 19.3296
384 -0.0935325 6.97128 17.5029
385 1.68773 8.74198 19.2182
386 3.39568 6.91529 17.4898
387 5.17648 8.65555 19.2305
388 7.01863 6.89338 17.5584
389 8.79492 8.60867 19.3163
390 10.6833 6.92403 17.6555
391 12.4197 8.74982 19.3513
392 14.1952 6.96126 17.6474
393 15.9245 8.83437 19.3406
394 17.5787 6.98988 17.5772
395 19.3565 8.81558 19.2351
396 0.000992658 10.5895 17.4752
397 1.81764 12.3338 19.1946
398 3.47436 10.4667 17.4498
399 5.25004 12.2127 19.227
400 7.03282 10.3825 17.5454
401 8.71627 12.2207 19.3033
402 10.5639 10.4836 17.6151
403 12.267 12.3346 19.3491
404 14.1438 10.6017 17.6552
405 15.8886 12.4579 19.3367
406 17.6289 10.657 17.5897
407 19.4592 12.4439 19.2366
408 0.112402 14.1664 17.4771
409 1.87362 15.8784 19.2798
410 3.57218 14.1283 17.4815
411 5.25435 15.894 19.3185
412 6.99552 14.094 17.5781
413 8.6797 15.9255 19.3662
414 10.4452 14.1317 17.6759
415 12.2032 15.9028 19.4553
416 14.0373 14.2103 17.6931
417 15.8542 15.8956 19.4113
418 17.6474 14.2014 17.5907
419 19.5189 15.8637 19.3304
420 0.112505 17.6568 17.5659
421 1.81628 19.4079 19.3722
422 3.57192 17.7257 17.533
423 5.19729 19.5088 19.3944
424 6.97949 17.7792 17.6341
425 8.68137 19.5121 19.4635
426 10.4639 17.7629 17.7505
427 12.2944 19.4155 19.5326
428 13.995 17.6638 17.7548
429 15.8934 19.2969 19.4836
430 17.7001 17.62 17.6708
431 19.4697 19.3014 19.4178
432 9.54173 9.38757 9.71733
433 8.31537 8.07143 7.91931
